 Gaussian 09, Revision D.01,
 Gaussian 09:  ES64L-G09RevD.01 24-Apr-2013

 -----------------------------------------
 #B3LYP/6-31G(d) em=GD3BJ Opt=ModRedundant
 -----------------------------------------

 -------------
 scan rotamers
 -------------
 Symbolic Z-matrix:
 Charge =  0 Multiplicity = 1

 SCF Done:  E(RB3LYP) =  -653.083898450     A.U. after   14 cycles
 SCF Done:  E(RB3LYP) =  -653.132759750     A.U. after   15 cycles
 SCF Done:  E(RB3LYP) =  -653.145324914     A.U. after   12 cycles
 SCF Done:  E(RB3LYP) =  -653.148043733     A.U. after   13 cycles
 SCF Done:  E(RB3LYP) =  -653.148729213     A.U. after   12 cycles
 SCF Done:  E(RB3LYP) =  -653.149179230     A.U. after   12 cycles
 SCF Done:  E(RB3LYP) =  -653.149739582     A.U. after   12 cycles
 SCF Done:  E(RB3LYP) =  -653.150418137     A.U. after   15 cycles
 SCF Done:  E(RB3LYP) =  -653.151173479     A.U. after   11 cycles
 SCF Done:  E(RB3LYP) =  -653.151940015     A.U. after   12 cycles
 SCF Done:  E(RB3LYP) =  -653.154168776     A.U. after    9 cycles
 SCF Done:  E(RB3LYP) =  -653.154170240     A.U. after    8 cycles
 SCF Done:  E(RB3LYP) =  -653.154170665     A.U. after    7 cycles
 SCF Done:  E(RB3LYP) =  -653.154170829     A.U. after    7 cycles
 SCF Done:  E(RB3LYP) =  -653.154170950     A.U. after    7 cycles
 SCF Done:  E(RB3LYP) =  -653.154171029     A.U. after    7 cycles
 SCF Done:  E(RB3LYP) =  -653.154171076     A.U. after    6 cycles
 SCF Done:  E(RB3LYP) =  -653.154171163     A.U. after    6 cycles
 SCF Done:  E(RB3LYP) =  -653.154171277     A.U. after    6 cycles
 SCF Done:  E(RB3LYP) =  -653.154171288     A.U. after    6 cycles
 Optimization completed.
    -- Stationary point found.

                         Standard orientation:
 ---------------------------------------------------------------------
 Center     Atomic      Atomic             Coordinates (Angstroms)
 Number     Number       Type             X           Y           Z
 ---------------------------------------------------------------------
      1          6           0       -0.600912   -1.593600    0.249776
      2          7           0       -2.075647    0.285652    0.401991
      3          6           0       -0.818582   -0.137779   -0.185195
      4          6           0        0.371513    0.725344    0.289718
      5          8           0       -0.844804   -1.941402    1.400342
      6          7           0       -0.101980   -2.425187   -0.702884
      7          6           0        0.241143   -3.810709   -0.432454
      8          6           0       -2.912463    1.282457   -0.024378
      9          8           0       -3.884265    1.624801    0.635654
     10          6           0       -2.592725    1.908296   -1.375604
     11          6           0        1.702513    0.370756   -0.379311
     12          6           0        2.850230    1.345993   -0.064664
     13          6           0        3.171059    1.394646    1.434799
     14          6           0        4.099667    0.974661   -0.872589
     15          1           0       -2.285882   -0.117015    1.309345
     16          1           0       -0.895263   -0.079605   -1.277046
     17          1           0        0.124109    1.775787    0.090408
     18          1           0        0.438478    0.615938    1.377178
     19          1           0        0.080095   -2.049061   -1.621761
     20          1           0       -0.030579   -4.014887    0.603668
     21          1           0       -0.314021   -4.487189   -1.091175
     22          1           0        1.315130   -3.985019   -0.564652
     23          1           0       -2.681022    1.168890   -2.180783
     24          1           0       -3.311136    2.709248   -1.551288
     25          1           0       -1.577900    2.319150   -1.411380
     26          1           0        2.009493   -0.642480   -0.085308
     27          1           0        1.558855    0.343873   -1.470860
     28          1           0        2.528834    2.351186   -0.377511
     29          1           0        4.012425    2.068626    1.631317
     30          1           0        2.320004    1.745807    2.026742
     31          1           0        3.447790    0.398619    1.804166
     32          1           0        4.912695    1.687595   -0.695271
     33          1           0        3.891731    0.961079   -1.949124
     34          1           0        4.463443   -0.021384   -0.588964
 ---------------------------------------------------------------------

 The electronic state is 1-A.
 Alpha  occ. eigenvalues --  -19.12418 -19.09729 -14.37891 -14.34748 -10.29724
 Alpha  occ. eigenvalues --  -10.27896 -10.24445 -10.22898 -10.19674 -10.19515
 Alpha  occ. eigenvalues --  -10.19277 -10.18785 -10.17998 -10.17730  -1.04590
 Alpha  occ. eigenvalues --   -1.01758  -0.93574  -0.91737  -0.82290  -0.77721
 Alpha  occ. eigenvalues --   -0.73564  -0.72870  -0.68796  -0.68759  -0.62492
 Alpha  occ. eigenvalues --   -0.59973  -0.57701  -0.56836  -0.53266  -0.49846
 Alpha  occ. eigenvalues --   -0.47787  -0.47148  -0.46207  -0.45442  -0.45052
 Alpha  occ. eigenvalues --   -0.43906  -0.43417  -0.42859  -0.40795  -0.40178
 Alpha  occ. eigenvalues --   -0.39619  -0.39306  -0.38940  -0.38345  -0.37223
 Alpha  occ. eigenvalues --   -0.36572  -0.35706  -0.35283  -0.33124  -0.32940
 Alpha  occ. eigenvalues --   -0.32780  -0.26849  -0.26555  -0.23925  -0.23552
 Alpha virt. eigenvalues --    0.01374   0.03865   0.05189   0.07848   0.08699
 Alpha virt. eigenvalues --    0.10097   0.11353   0.12323   0.13122   0.13869
 Alpha virt. eigenvalues --    0.14070   0.14888   0.15476   0.15800   0.16209

 Mulliken charges:
               1
     1  C    0.613515
     2  N   -0.587186
     3  C   -0.040358
     4  C   -0.263954
     5  O   -0.528707
     6  N   -0.586937
     7  C   -0.316258
     8  C    0.575135
     9  O   -0.499520
    10  C   -0.549370
    11  C   -0.264758
    12  C   -0.067488
    13  C   -0.447100
    14  C   -0.442994
    15  H    0.347755
    16  H    0.132895
    17  H    0.144009
    18  H    0.166696
    19  H    0.328462
    20  H    0.210326
    21  H    0.164190
    22  H    0.161577
    23  H    0.165661
    24  H    0.187795
    25  H    0.161549
    26  H    0.139199
    27  H    0.113690
    28  H    0.123232
    29  H    0.143903
    30  H    0.151475
    31  H    0.142127
    32  H    0.145017
    33  H    0.137136
    34  H    0.139288
 Sum of Mulliken charges =   0.00000

 Dipole moment (field-independent basis, Debye):
    X=              4.8356    Y=             -1.7366    Z=             -4.3965  Tot=              6.7622
 Quadrupole moment (field-independent basis, Debye-Ang):
   XX=           -105.2492   YY=            -82.7444   ZZ=            -86.3942
   XY=              4.9773   XZ=              7.3449   YZ=              3.5781

 Normal termination of Gaussian 09 at Wed Mar  3 19:07:31 2021.
