 Gaussian 09, Revision D.01,
 Gaussian 09:  ES64L-G09RevD.01 24-Apr-2013

 -----------------------------------------
 #B3LYP/6-31G(d) em=GD3BJ Opt=ModRedundant
 -----------------------------------------

 -------------
 scan rotamers
 -------------
 Symbolic Z-matrix:
 Charge =  0 Multiplicity = 1

 SCF Done:  E(RB3LYP) =  -742.910444725     A.U. after   15 cycles
 SCF Done:  E(RB3LYP) =  -742.955202727     A.U. after   14 cycles
 SCF Done:  E(RB3LYP) =  -742.963334136     A.U. after   13 cycles
 SCF Done:  E(RB3LYP) =  -742.967847964     A.U. after   13 cycles
 SCF Done:  E(RB3LYP) =  -742.971133486     A.U. after   13 cycles
 SCF Done:  E(RB3LYP) =  -742.973828919     A.U. after   15 cycles
 SCF Done:  E(RB3LYP) =  -742.975274224     A.U. after   13 cycles
 SCF Done:  E(RB3LYP) =  -742.978718542     A.U. after   13 cycles
 SCF Done:  E(RB3LYP) =  -742.982338336     A.U. after   13 cycles
 SCF Done:  E(RB3LYP) =  -742.984348749     A.U. after   13 cycles
 SCF Done:  E(RB3LYP) =  -742.989965899     A.U. after   11 cycles
 SCF Done:  E(RB3LYP) =  -742.989967828     A.U. after    8 cycles
 SCF Done:  E(RB3LYP) =  -742.989968153     A.U. after    8 cycles
 SCF Done:  E(RB3LYP) =  -742.989968227     A.U. after    8 cycles
 SCF Done:  E(RB3LYP) =  -742.989968292     A.U. after    7 cycles
 SCF Done:  E(RB3LYP) =  -742.989968488     A.U. after    7 cycles
 SCF Done:  E(RB3LYP) =  -742.989968735     A.U. after    7 cycles
 SCF Done:  E(RB3LYP) =  -742.989968992     A.U. after    7 cycles
 SCF Done:  E(RB3LYP) =  -742.989969133     A.U. after    7 cycles
 SCF Done:  E(RB3LYP) =  -742.989969146     A.U. after    7 cycles
 Optimization completed.
    -- Stationary point found.

                         Standard orientation:
 ---------------------------------------------------------------------
 Center     Atomic      Atomic             Coordinates (Angstroms)
 Number     Number       Type             X           Y           Z
 ---------------------------------------------------------------------
      1          6           0       -1.413359   -1.412171    0.123756
      2          7           0       -1.860579    1.002882    0.351328
      3          6           0       -0.809731    0.008115    0.163384
      4          6           0        0.345348    0.110451    1.198697
      5          8           0       -0.778116   -2.392046    0.502904
      6          7           0       -2.663715   -1.475547   -0.396717
      7          6           0       -3.381294   -2.724701   -0.569956
      8          6           0       -1.806443    2.317588   -0.090078
      9          8           0       -2.546713    3.160264    0.390226
     10          6           0       -0.827325    2.624932   -1.209283
     11          6           0        1.710889   -0.079512    0.582665
     12          6           0        2.573953    1.012167    0.428663
     13          7           0        3.782545    0.952323   -0.141151
     14          6           0        4.186058   -0.242479   -0.587775
     15          6           0        3.414322   -1.400937   -0.483000
     16          6           0        2.156650   -1.319282    0.108785
     17          1           0       -2.409610    0.917635    1.201936
     18          1           0       -0.391194    0.173583   -0.833965
     19          1           0        0.295670    1.105567    1.652347
     20          1           0        0.178690   -0.625788    1.990727
     21          1           0       -3.104499   -0.598917   -0.641213
     22          1           0       -2.738311   -3.526215   -0.204387
     23          1           0       -4.316297   -2.723058    0.001405
     24          1           0       -3.612201   -2.901728   -1.626478
     25          1           0        0.209332    2.470391   -0.889637
     26          1           0       -1.001509    1.986628   -2.082971
     27          1           0       -0.962154    3.668415   -1.494184
     28          1           0        2.270197    1.993707    0.795311
     29          1           0        5.171501   -0.273640   -1.049335
     30          1           0        3.793277   -2.346753   -0.858864
     31          1           0        1.513570   -2.188219    0.204901
 ---------------------------------------------------------------------

 The electronic state is 1-A.
 Alpha  occ. eigenvalues --  -19.12842 -19.12397 -14.37576 -14.37268 -14.32746
 Alpha  occ. eigenvalues --  -10.30143 -10.30094 -10.25397 -10.22932 -10.21979
 Alpha  occ. eigenvalues --  -10.21912 -10.20462 -10.20371 -10.20021 -10.19881
 Alpha  occ. eigenvalues --  -10.19632  -1.04907  -1.04295  -0.94690  -0.93760
 Alpha  occ. eigenvalues --   -0.92614  -0.82025  -0.78073  -0.75918  -0.74516
 Alpha  occ. eigenvalues --   -0.72044  -0.66629  -0.62801  -0.60506  -0.59440
 Alpha  occ. eigenvalues --   -0.59225  -0.54450  -0.51884  -0.50694  -0.48980
 Alpha  occ. eigenvalues --   -0.48223  -0.46724  -0.46245  -0.45969  -0.44875
 Alpha  occ. eigenvalues --   -0.43177  -0.42606  -0.41418  -0.40836  -0.40528
 Alpha  occ. eigenvalues --   -0.40448  -0.39749  -0.38940  -0.37924  -0.37395
 Alpha  occ. eigenvalues --   -0.36604  -0.35524  -0.28504  -0.27986  -0.27162
 Alpha  occ. eigenvalues --   -0.26754  -0.25600  -0.25086  -0.24698
 Alpha virt. eigenvalues --   -0.02283  -0.01106   0.00689   0.01367   0.07354
 Alpha virt. eigenvalues --    0.09059   0.09646   0.10261   0.11617   0.12753
 Alpha virt. eigenvalues --    0.13016   0.14008   0.15165   0.15555   0.15696

 Mulliken charges:
               1
     1  C    0.597214
     2  N   -0.617334
     3  C   -0.046173
     4  C   -0.361966
     5  O   -0.524268
     6  N   -0.585088
     7  C   -0.313233
     8  C    0.568037
     9  O   -0.481495
    10  C   -0.553382
    11  C    0.127356
    12  C   -0.024398
    13  N   -0.408669
    14  C    0.036657
    15  C   -0.139982
    16  C   -0.155221
    17  H    0.330252
    18  H    0.189096
    19  H    0.155990
    20  H    0.181452
    21  H    0.343994
    22  H    0.204774
    23  H    0.163346
    24  H    0.163472
    25  H    0.184476
    26  H    0.171955
    27  H    0.193350
    28  H    0.133375
    29  H    0.140465
    30  H    0.138015
    31  H    0.187932
 Sum of Mulliken charges =   0.00000

 Dipole moment (field-independent basis, Debye):
    X=             -2.1923    Y=             -2.5795    Z=             -1.6555  Tot=              3.7684
 Quadrupole moment (field-independent basis, Debye-Ang):
   XX=            -95.5548   YY=           -106.2604   ZZ=            -90.6228
   XY=              6.0067   XZ=              1.6360   YZ=              0.8802

 Normal termination of Gaussian 09 at Wed Mar  3 18:10:43 2021.
