 Gaussian 09, Revision D.01,
 Gaussian 09:  ES64L-G09RevD.01 24-Apr-2013

 -----------------------------------------
 #B3LYP/6-31G(d) em=GD3BJ Opt=ModRedundant
 -----------------------------------------

 -------------
 scan rotamers
 -------------
 Symbolic Z-matrix:
 Charge =  0 Multiplicity = 1

 SCF Done:  E(RB3LYP) =  -841.394784167     A.U. after   15 cycles
 SCF Done:  E(RB3LYP) =  -841.448577980     A.U. after   13 cycles
 SCF Done:  E(RB3LYP) =  -841.458256711     A.U. after   13 cycles
 SCF Done:  E(RB3LYP) =  -841.462906562     A.U. after   12 cycles
 SCF Done:  E(RB3LYP) =  -841.465658134     A.U. after   13 cycles
 SCF Done:  E(RB3LYP) =  -841.468929242     A.U. after   15 cycles
 SCF Done:  E(RB3LYP) =  -841.471864543     A.U. after   13 cycles
 SCF Done:  E(RB3LYP) =  -841.475847322     A.U. after   13 cycles
 SCF Done:  E(RB3LYP) =  -841.478630300     A.U. after   13 cycles
 SCF Done:  E(RB3LYP) =  -841.479912013     A.U. after   12 cycles
 SCF Done:  E(RB3LYP) =  -841.484123067     A.U. after   11 cycles
 SCF Done:  E(RB3LYP) =  -841.484131183     A.U. after   10 cycles
 SCF Done:  E(RB3LYP) =  -841.484135086     A.U. after   10 cycles
 SCF Done:  E(RB3LYP) =  -841.484135657     A.U. after    8 cycles
 SCF Done:  E(RB3LYP) =  -841.484135876     A.U. after    8 cycles
 SCF Done:  E(RB3LYP) =  -841.484135933     A.U. after    6 cycles
 SCF Done:  E(RB3LYP) =  -841.484135982     A.U. after    6 cycles
 SCF Done:  E(RB3LYP) =  -841.484135998     A.U. after    7 cycles
 SCF Done:  E(RB3LYP) =  -841.484136049     A.U. after    7 cycles
 SCF Done:  E(RB3LYP) =  -841.484136093     A.U. after    6 cycles
 Optimization completed.
    -- Stationary point found.

                         Standard orientation:
 ---------------------------------------------------------------------
 Center     Atomic      Atomic             Coordinates (Angstroms)
 Number     Number       Type             X           Y           Z
 ---------------------------------------------------------------------
      1          6           0       -1.697081   -1.585809    0.264650
      2          7           0       -2.649594    0.694008    0.148780
      3          6           0       -1.408018   -0.070901    0.212776
      4          6           0       -0.452528    0.366707    1.360193
      5          8           0       -0.908241   -2.369781    0.783236
      6          7           0       -2.850349   -1.961227   -0.343666
      7          6           0       -3.258953   -3.347714   -0.463033
      8          6           0       -2.789107    1.938418   -0.447922
      9          8           0       -3.733697    2.657781   -0.163660
     10          6           0       -1.745540    2.323681   -1.481598
     11          6           0        0.963380    0.594040    0.880278
     12          6           0        1.738102   -0.481977    0.447743
     13          6           0        3.032171   -0.272364   -0.044497
     14          6           0        3.560583    1.022917   -0.108496
     15          6           0        2.779931    2.095445    0.327300
     16          6           0        1.492704    1.891769    0.817273
     17          8           0        3.699353   -1.395744   -0.439927
     18          6           0        5.017440   -1.245797   -0.936985
     19          1           0       -3.278928    0.588890    0.939452
     20          1           0       -0.891500    0.084347   -0.738796
     21          1           0       -0.843993    1.293569    1.790636
     22          1           0       -0.466633   -0.400163    2.139864
     23          1           0       -3.428992   -1.225437   -0.725838
     24          1           0       -2.517192   -3.953841    0.058634
     25          1           0       -4.242358   -3.507296   -0.006787
     26          1           0       -3.301661   -3.658637   -1.513382
     27          1           0       -0.752303    2.422630   -1.029351
     28          1           0       -1.671685    1.573415   -2.277029
     29          1           0       -2.041808    3.279162   -1.914920
     30          1           0        1.343254   -1.492010    0.488947
     31          1           0        4.559746    1.203807   -0.486193
     32          1           0        3.189268    3.101051    0.282560
     33          1           0        0.899327    2.734752    1.161711
     34          1           0        5.360819   -2.251502   -1.185298
     35          1           0        5.040193   -0.621206   -1.840152
     36          1           0        5.686216   -0.809533   -0.183131
 ---------------------------------------------------------------------

 The electronic state is 1-A.
 Alpha  occ. eigenvalues --  -19.17417 -19.11926 -19.11794 -14.36788 -14.36584
 Alpha  occ. eigenvalues --  -10.29479 -10.29246 -10.24441 -10.24322 -10.23896
 Alpha  occ. eigenvalues --  -10.22285 -10.19422 -10.19370 -10.19180 -10.18940
 Alpha  occ. eigenvalues --  -10.18411 -10.17996 -10.17299  -1.06087  -1.04089
 Alpha  occ. eigenvalues --   -1.03593  -0.93917  -0.91880  -0.85075  -0.78713
 Alpha  occ. eigenvalues --   -0.75231  -0.74921  -0.73631  -0.70869  -0.69185
 Alpha  occ. eigenvalues --   -0.65397  -0.60006  -0.59028  -0.58447  -0.57504
 Alpha  occ. eigenvalues --   -0.53659  -0.52451  -0.49866  -0.48410  -0.48118
 Alpha  occ. eigenvalues --   -0.47442  -0.46606  -0.45874  -0.45401  -0.44813
 Alpha  occ. eigenvalues --   -0.43496  -0.42842  -0.41498  -0.41466  -0.40615
 Alpha  occ. eigenvalues --   -0.40044  -0.39469  -0.39403  -0.38121  -0.37390
 Alpha  occ. eigenvalues --   -0.36720  -0.35880  -0.35216  -0.34632  -0.32056
 Alpha  occ. eigenvalues --   -0.31367  -0.27416  -0.26468  -0.25958  -0.24762
 Alpha  occ. eigenvalues --   -0.23592  -0.21613
 Alpha virt. eigenvalues --   -0.00062   0.00798   0.01823   0.02274   0.08127
 Alpha virt. eigenvalues --    0.09112   0.10083   0.10800   0.10917   0.11816
 Alpha virt. eigenvalues --    0.13230   0.13770   0.14285   0.15474   0.15690

 Mulliken charges:
               1
     1  C    0.595174
     2  N   -0.618524
     3  C   -0.043329
     4  C   -0.358389
     5  O   -0.521150
     6  N   -0.587839
     7  C   -0.312055
     8  C    0.567618
     9  O   -0.485883
    10  C   -0.555570
    11  C    0.136407
    12  C   -0.242160
    13  C    0.380226
    14  C   -0.197171
    15  C   -0.137321
    16  C   -0.198417
    17  O   -0.503294
    18  C   -0.214290
    19  H    0.328443
    20  H    0.192580
    21  H    0.149162
    22  H    0.185157
    23  H    0.342392
    24  H    0.204823
    25  H    0.160405
    26  H    0.161257
    27  H    0.188140
    28  H    0.170433
    29  H    0.188153
    30  H    0.176629
    31  H    0.129140
    32  H    0.128782
    33  H    0.120629
    34  H    0.169487
    35  H    0.148996
    36  H    0.151359
 Sum of Mulliken charges =   0.00000

 Dipole moment (field-independent basis, Debye):
    X=              1.0648    Y=             -0.8576    Z=             -2.0426  Tot=              2.4579
 Quadrupole moment (field-independent basis, Debye-Ang):
   XX=            -95.3871   YY=           -112.6049   ZZ=           -103.8801
   XY=             17.0424   XZ=             -3.1526   YZ=              3.7031

 Normal termination of Gaussian 09 at Wed Mar  3 17:38:30 2021.
