 Gaussian 09, Revision D.01,
 Gaussian 09:  ES64L-G09RevD.01 24-Apr-2013

 -----------------------------------------
 #B3LYP/6-31G(d) em=GD3BJ Opt=ModRedundant
 -----------------------------------------

 -------------
 scan rotamers
 -------------
 Symbolic Z-matrix:
 Charge =  0 Multiplicity = 1

 SCF Done:  E(RB3LYP) =  -990.014392817     A.U. after   16 cycles
 SCF Done:  E(RB3LYP) =  -990.070607808     A.U. after   14 cycles
 SCF Done:  E(RB3LYP) =  -990.061503009     A.U. after   15 cycles
 SCF Done:  E(RB3LYP) =  -990.086213845     A.U. after   12 cycles
 SCF Done:  E(RB3LYP) =  -990.092722139     A.U. after   13 cycles
 SCF Done:  E(RB3LYP) =  -990.096996427     A.U. after   15 cycles
 SCF Done:  E(RB3LYP) =  -990.100063678     A.U. after   14 cycles
 SCF Done:  E(RB3LYP) =  -990.104249196     A.U. after   13 cycles
 SCF Done:  E(RB3LYP) =  -990.108938168     A.U. after   13 cycles
 SCF Done:  E(RB3LYP) =  -990.111453265     A.U. after   13 cycles
 SCF Done:  E(RB3LYP) =  -990.115845756     A.U. after   12 cycles
 SCF Done:  E(RB3LYP) =  -990.115844556     A.U. after   12 cycles
 SCF Done:  E(RB3LYP) =  -990.115846128     A.U. after   10 cycles
 SCF Done:  E(RB3LYP) =  -990.115851522     A.U. after   10 cycles
 SCF Done:  E(RB3LYP) =  -990.115855341     A.U. after   11 cycles
 SCF Done:  E(RB3LYP) =  -990.115855826     A.U. after    7 cycles
 SCF Done:  E(RB3LYP) =  -990.115857129     A.U. after    9 cycles
 SCF Done:  E(RB3LYP) =  -990.115858507     A.U. after    9 cycles
 SCF Done:  E(RB3LYP) =  -990.115858887     A.U. after    9 cycles
 SCF Done:  E(RB3LYP) =  -990.115858921     A.U. after    7 cycles
 Optimization completed.
    -- Stationary point found.

                         Standard orientation:
 ---------------------------------------------------------------------
 Center     Atomic      Atomic             Coordinates (Angstroms)
 Number     Number       Type             X           Y           Z
 ---------------------------------------------------------------------
      1          6           0       -3.206378   -1.432158    0.065634
      2          7           0       -3.697191    0.989958    0.076850
      3          6           0       -2.630252   -0.002479    0.142392
      4          6           0       -1.688939    0.165696    1.369897
      5          8           0       -2.621988   -2.384761    0.573861
      6          7           0       -4.362887   -1.537275   -0.633899
      7          6           0       -5.024946   -2.806335   -0.871676
      8          6           0       -3.564810    2.275422   -0.429382
      9          8           0       -4.379697    3.137569   -0.143637
     10          6           0       -2.399273    2.525519   -1.369901
     11          6           0       -0.228662    0.021860    1.020249
     12          6           0        0.333709   -1.195742    0.615156
     13          6           0        1.679162   -1.243557    0.273099
     14          6           0        2.442403   -0.068870    0.337997
     15          7           0        1.914798    1.104594    0.726354
     16          6           0        0.622666    1.132618    1.053856
     17          6           0        3.883879   -0.072924   -0.023325
     18          7           0        4.406182   -1.244872   -0.427255
     19          6           0        5.699313   -1.275251   -0.756478
     20          6           0        6.537455   -0.160594   -0.705574
     21          6           0        5.990905    1.052379   -0.286509
     22          6           0        4.645272    1.101433    0.060489
     23          1           0       -4.389420    0.951704    0.819583
     24          1           0       -2.032639    0.114275   -0.766539
     25          1           0       -1.859198    1.163990    1.786004
     26          1           0       -1.969464   -0.566765    2.132857
     27          1           0       -4.764250   -0.680142   -0.989905
     28          1           0       -4.439284   -3.580454   -0.374381
     29          1           0       -6.040687   -2.801773   -0.460823
     30          1           0       -5.077464   -3.027849   -1.943681
     31          1           0       -2.407035    1.829104   -2.216042
     32          1           0       -2.484477    3.545940   -1.743687
     33          1           0       -1.438241    2.409494   -0.856168
     34          1           0       -0.291527   -2.082282    0.573245
     35          1           0        2.157064   -2.162829   -0.042792
     36          1           0        0.233499    2.100823    1.371575
     37          1           0        6.086401   -2.240814   -1.077939
     38          1           0        7.582808   -0.245266   -0.985629
     39          1           0        6.604998    1.947009   -0.230583
     40          1           0        4.167046    2.014418    0.393223
 ---------------------------------------------------------------------

 The electronic state is 1-A.
 Alpha  occ. eigenvalues --  -19.12659 -19.12345 -14.37453 -14.37210 -14.32774
 Alpha  occ. eigenvalues --  -14.32702 -10.30046 -10.29984 -10.25290 -10.22801
 Alpha  occ. eigenvalues --  -10.22526 -10.22384 -10.22097 -10.22024 -10.20524
 Alpha  occ. eigenvalues --  -10.20350 -10.20282 -10.19965 -10.19709 -10.19594
 Alpha  occ. eigenvalues --  -10.19103 -10.18929  -1.04769  -1.04216  -0.94952
 Alpha  occ. eigenvalues --   -0.94582  -0.93145  -0.92513  -0.82093  -0.80057
 Alpha  occ. eigenvalues --   -0.78466  -0.77180  -0.75121  -0.74039  -0.71691
 Alpha  occ. eigenvalues --   -0.66995  -0.64199  -0.62838  -0.61174  -0.59678
 Alpha  occ. eigenvalues --   -0.59175  -0.58636  -0.54386  -0.53073  -0.50726
 Alpha  occ. eigenvalues --   -0.50131  -0.48869  -0.48372  -0.46777  -0.46499
 Alpha  occ. eigenvalues --   -0.46011  -0.45842  -0.44882  -0.44268  -0.43060
 Alpha  occ. eigenvalues --   -0.42373  -0.41568  -0.41117  -0.40999  -0.40705
 Alpha  occ. eigenvalues --   -0.40407  -0.40102  -0.39159  -0.38302  -0.37686
 Alpha  occ. eigenvalues --   -0.37389  -0.36717  -0.36330  -0.35085  -0.29305
 Alpha  occ. eigenvalues --   -0.28457  -0.27943  -0.27320  -0.26763  -0.26583
 Alpha  occ. eigenvalues --   -0.26204  -0.25110  -0.24616  -0.22850
 Alpha virt. eigenvalues --   -0.04796  -0.02438  -0.00710   0.00618   0.01420
 Alpha virt. eigenvalues --    0.03193   0.07491   0.09249   0.09821   0.10345
 Alpha virt. eigenvalues --    0.10352   0.12415   0.12779   0.13439   0.14291

 Mulliken charges:
               1
     1  C    0.597219
     2  N   -0.618417
     3  C   -0.045073
     4  C   -0.363602
     5  O   -0.523194
     6  N   -0.586651
     7  C   -0.313232
     8  C    0.568186
     9  O   -0.482137
    10  C   -0.553406
    11  C    0.125532
    12  C   -0.158376
    13  C   -0.154332
    14  C    0.259058
    15  N   -0.495662
    16  C   -0.021920
    17  C    0.259575
    18  N   -0.492758
    19  C    0.042984
    20  C   -0.143702
    21  C   -0.102991
    22  C   -0.152095
    23  H    0.330050
    24  H    0.190458
    25  H    0.154977
    26  H    0.184242
    27  H    0.343935
    28  H    0.205328
    29  H    0.162927
    30  H    0.163446
    31  H    0.172495
    32  H    0.192633
    33  H    0.184475
    34  H    0.185226
    35  H    0.167934
    36  H    0.131392
    37  H    0.138780
    38  H    0.137459
    39  H    0.142544
    40  H    0.166693
 Sum of Mulliken charges =   0.00000

 Dipole moment (field-independent basis, Debye):
    X=             -0.6757    Y=             -0.9628    Z=             -1.7993  Tot=              2.1497
 Quadrupole moment (field-independent basis, Debye-Ang):
   XX=           -106.7124   YY=           -138.6453   ZZ=           -125.0400
   XY=             17.9310   XZ=              1.4057   YZ=              3.0563

 Normal termination of Gaussian 09 at Sun Mar 14 15:57:44 2021.
