 Gaussian 09, Revision D.01,
 Gaussian 09:  ES64L-G09RevD.01 24-Apr-2013

 -----------------------------------------
 #B3LYP/6-31G(d) em=GD3BJ Opt=ModRedundant
 -----------------------------------------

 -------------
 scan rotamers
 -------------
 Symbolic Z-matrix:
 Charge =  1 Multiplicity = 1

 SCF Done:  E(RB3LYP) =  -630.150635071     A.U. after   17 cycles
 SCF Done:  E(RB3LYP) =  -630.197367616     A.U. after   15 cycles
 SCF Done:  E(RB3LYP) =  -630.208145350     A.U. after   13 cycles
 SCF Done:  E(RB3LYP) =  -630.210775826     A.U. after   13 cycles
 SCF Done:  E(RB3LYP) =  -630.211979920     A.U. after   13 cycles
 SCF Done:  E(RB3LYP) =  -630.213144684     A.U. after   13 cycles
 SCF Done:  E(RB3LYP) =  -630.214483319     A.U. after   13 cycles
 SCF Done:  E(RB3LYP) =  -630.216025904     A.U. after   15 cycles
 SCF Done:  E(RB3LYP) =  -630.217041802     A.U. after   12 cycles
 SCF Done:  E(RB3LYP) =  -630.218957640     A.U. after   13 cycles
 SCF Done:  E(RB3LYP) =  -630.262418637     A.U. after   11 cycles
 SCF Done:  E(RB3LYP) =  -630.262481009     A.U. after   11 cycles
 SCF Done:  E(RB3LYP) =  -630.262511710     A.U. after   10 cycles
 SCF Done:  E(RB3LYP) =  -630.262516491     A.U. after   10 cycles
 SCF Done:  E(RB3LYP) =  -630.262518034     A.U. after    8 cycles
 SCF Done:  E(RB3LYP) =  -630.262518572     A.U. after    8 cycles
 SCF Done:  E(RB3LYP) =  -630.262518662     A.U. after    7 cycles
 SCF Done:  E(RB3LYP) =  -630.262518699     A.U. after    7 cycles
 SCF Done:  E(RB3LYP) =  -630.262518732     A.U. after    7 cycles
 SCF Done:  E(RB3LYP) =  -630.262518746     A.U. after    7 cycles
 Optimization completed.
    -- Stationary point found.

                         Standard orientation:
 ---------------------------------------------------------------------
 Center     Atomic      Atomic             Coordinates (Angstroms)
 Number     Number       Type             X           Y           Z
 ---------------------------------------------------------------------
      1          6           0       -0.096748   -1.073691    0.025733
      2          7           0        1.457764    0.769868    0.623313
      3          6           0        0.112855    0.443373    0.185173
      4          6           0       -0.936504    1.045947    1.166678
      5          8           0       -1.148561   -1.519809   -0.493380
      6          7           0        0.869479   -1.862619    0.476004
      7          6           0        0.837140   -3.320620    0.424791
      8          6           0        2.558039    1.058829   -0.190417
      9          8           0        3.571352    1.503999    0.307890
     10          6           0        2.406226    0.767395   -1.670562
     11          6           0       -2.205364    1.678834    0.563208
     12          6           0       -3.351345    0.758156    0.142043
     13          7           0       -3.069081    0.041178   -1.151174
     14          1           0        1.581066    1.102495    1.573716
     15          1           0       -0.047879    0.872299   -0.811421
     16          1           0       -1.214223    0.302619    1.923196
     17          1           0       -0.426844    1.853432    1.700701
     18          1           0        1.677741   -1.389685    0.867122
     19          1           0       -0.069740   -3.626823   -0.095240
     20          1           0        1.713110   -3.692005   -0.113455
     21          1           0        0.835481   -3.732989    1.437792
     22          1           0        1.999843   -0.232267   -1.858679
     23          1           0        1.741009    1.500144   -2.143936
     24          1           0        3.390044    0.850870   -2.132214
     25          1           0       -2.631625    2.333987    1.331025
     26          1           0       -1.936005    2.344769   -0.268810
     27          1           0       -3.531930   -0.021069    0.887041
     28          1           0       -4.271545    1.331058    0.007948
     29          1           0       -3.859651   -0.545454   -1.434609
     30          1           0       -2.886395    0.699701   -1.913567
     31          1           0       -2.197705   -0.612919   -0.989575
 ---------------------------------------------------------------------

 The electronic state is 1-A.
 Alpha  occ. eigenvalues --  -19.28278 -19.22723 -14.58974 -14.51369 -14.48497
 Alpha  occ. eigenvalues --  -10.44285 -10.40617 -10.40419 -10.38983 -10.35633
 Alpha  occ. eigenvalues --  -10.34976 -10.34222 -10.30241  -1.19589  -1.15041
 Alpha  occ. eigenvalues --   -1.14041  -1.07931  -1.04831  -0.95581  -0.89605
 Alpha  occ. eigenvalues --   -0.85784  -0.85271  -0.81363  -0.76473  -0.75130
 Alpha  occ. eigenvalues --   -0.72423  -0.71239  -0.70255  -0.67341  -0.65461
 Alpha  occ. eigenvalues --   -0.63409  -0.61141  -0.60756  -0.59040  -0.58236
 Alpha  occ. eigenvalues --   -0.57926  -0.56020  -0.55723  -0.54241  -0.52895
 Alpha  occ. eigenvalues --   -0.52300  -0.51819  -0.51490  -0.50354  -0.50075
 Alpha  occ. eigenvalues --   -0.49295  -0.48149  -0.43322  -0.40843  -0.37811
 Alpha  occ. eigenvalues --   -0.36191
 Alpha virt. eigenvalues --   -0.13160  -0.11602  -0.09149  -0.06766  -0.05162
 Alpha virt. eigenvalues --   -0.04162  -0.03942  -0.03345  -0.01387  -0.00912
 Alpha virt. eigenvalues --    0.00234   0.00284   0.01855   0.02064   0.02698

 Mulliken charges:
               1
     1  C    0.636082
     2  N   -0.649781
     3  C   -0.018788
     4  C   -0.310170
     5  O   -0.601368
     6  N   -0.557367
     7  C   -0.330368
     8  C    0.569564
     9  O   -0.444800
    10  C   -0.553945
    11  C   -0.299695
    12  C   -0.192441
    13  N   -0.764941
    14  H    0.348923
    15  H    0.164376
    16  H    0.181936
    17  H    0.193593
    18  H    0.375873
    19  H    0.213484
    20  H    0.200642
    21  H    0.199213
    22  H    0.164853
    23  H    0.180651
    24  H    0.223436
    25  H    0.206945
    26  H    0.169422
    27  H    0.217426
    28  H    0.216287
    29  H    0.408674
    30  H    0.393627
    31  H    0.458659
 Sum of Mulliken charges =   1.00000

 Dipole moment (field-independent basis, Debye):
    X=             -9.9098    Y=             -0.6575    Z=             -1.8337  Tot=             10.0995
 Quadrupole moment (field-independent basis, Debye-Ang):
   XX=            -49.1214   YY=            -65.3112   ZZ=            -64.3081
   XY=            -15.1895   XZ=              6.2937   YZ=             -3.1372

 Normal termination of Gaussian 09 at Wed Mar  3 18:43:42 2021.
